# vtk DataFile Version 3.0
Custom Data Example
ASCII

DATASET UNSTRUCTURED_GRID
POINTS 10 float
0.0 0.0 1.7
-1.0 -1.0 0.5
 1.0 -1.0 0.5
 1.0 1.0 0.5
-1.0 1.0 0.5
-1.0 -1.0 -0.5
 1.0 -1.0 -0.5
 1.0 1.0 -0.5
-1.0 1.0 -0.5
 0.0 0.0 -1.7

CELLS 12 52
4 1 2 3 0 
3 0 2 3
3 0 3 4
3 0 4 1
4 1 5 6 2
4 2 6 7 3
4 3 7 8 4
4 4 8 5 1 
3 5 9 6
3 6 9 7 
3 7 9 8
3 8 9 5

CELL_TYPES 12
5
5
5
5
9
9
9
9
5
5
5
5

POINT_DATA 10
SCALARS pdata float 1
LOOKUP_TABLE default
5.0 
1 1 1 1
1 1 1 1
5.0 

CELL_DATA 12
SCALARS cdata int 1
LOOKUP_TABLE default
0 0 0 0 1 1 1 1 2 2 2 2

