# vtk DataFile Version 3.0
vtk output
ASCII
DATASET UNSTRUCTURED_GRID
POINTS 1000 float
-1.000000e+01	0.000000e+00	0.0	-9.999803e+00	6.283144e-02	0.0	-9.999210e+00	1.256604e-01	0.0	-9.998224e+00	1.884844e-01	0.0	-9.996842e+00	2.513010e-01	0.0	-9.995066e+00	3.141076e-01	0.0	-9.992895e+00	3.769018e-01	0.0	-9.990329e+00	4.396812e-01	0.0	-9.987370e+00	5.024432e-01	0.0	-9.984016e+00	5.651853e-01	0.0	-9.980267e+00	6.279052e-01	0.0	-9.976125e+00	6.906003e-01	0.0	-9.971589e+00	7.532681e-01	0.0	-9.966659e+00	8.159061e-01	0.0	-9.961336e+00	8.785120e-01	0.0	-9.955620e+00	9.410831e-01	0.0	-9.949510e+00	1.003617e+00	0.0	-9.943008e+00	1.066112e+00	0.0	-9.936113e+00	1.128564e+00	0.0	-9.928826e+00	1.190972e+00	0.0	-9.921147e+00	1.253332e+00	0.0	-9.913076e+00	1.315644e+00	0.0	-9.904614e+00	1.377903e+00	0.0	-9.895761e+00	1.440108e+00	0.0	-9.886517e+00	1.502256e+00	0.0	-9.876883e+00	1.564345e+00	0.0	-9.866859e+00	1.626372e+00	0.0	-9.856446e+00	1.688334e+00	0.0	-9.845643e+00	1.750231e+00	0.0	-9.834452e+00	1.812058e+00	0.0	-9.822873e+00	1.873813e+00	0.0	-9.810905e+00	1.935495e+00	0.0	-9.798551e+00	1.997100e+00	0.0	-9.785809e+00	2.058626e+00	0.0	-9.772681e+00	2.120071e+00	0.0	-9.759168e+00	2.181432e+00	0.0	-9.745269e+00	2.242708e+00	0.0	-9.730985e+00	2.303894e+00	0.0	-9.716317e+00	2.364990e+00	0.0	-9.701266e+00	2.425992e+00	0.0	-9.685832e+00	2.486899e+00	0.0	-9.670015e+00	2.547707e+00	0.0	-9.653816e+00	2.608415e+00	0.0	-9.637237e+00	2.669020e+00	0.0	-9.620277e+00	2.729519e+00	0.0	-9.602937e+00	2.789911e+00	0.0	-9.585218e+00	2.850193e+00	0.0	-9.567121e+00	2.910362e+00	0.0	-9.548645e+00	2.970416e+00	0.0	-9.529793e+00	3.030353e+00	0.0	-9.510565e+00	3.090170e+00	0.0	-9.490961e+00	3.149865e+00	0.0	-9.470983e+00	3.209436e+00	0.0	-9.450631e+00	3.268880e+00	0.0	-9.429905e+00	3.328195e+00	0.0	-9.408808e+00	3.387379e+00	0.0	-9.387339e+00	3.446429e+00	0.0	-9.365499e+00	3.505343e+00	0.0	-9.343289e+00	3.564119e+00	0.0	-9.320711e+00	3.622754e+00	0.0	-9.297765e+00	3.681246e+00	0.0	-9.274452e+00	3.739592e+00	0.0	-9.250772e+00	3.797791e+00	0.0	-9.226727e+00	3.855840e+00	0.0	-9.202318e+00	3.913737e+00	0.0	-9.177546e+00	3.971479e+00	0.0	-9.152412e+00	4.029064e+00	0.0	-9.126916e+00	4.086491e+00	0.0	-9.101060e+00	4.143756e+00	0.0	-9.074844e+00	4.200857e+00	0.0	-9.048271e+00	4.257793e+00	0.0	-9.021340e+00	4.314560e+00	0.0	-8.994053e+00	4.371158e+00	0.0	-8.966410e+00	4.427582e+00	0.0	-8.938414e+00	4.483832e+00	0.0	-8.910065e+00	4.539905e+00	0.0	-8.881364e+00	4.595799e+00	0.0	-8.852313e+00	4.651511e+00	0.0	-8.822912e+00	4.707039e+00	0.0	-8.793163e+00	4.762382e+00	0.0	-8.763067e+00	4.817537e+00	0.0	-8.732625e+00	4.872501e+00	0.0	-8.701838e+00	4.927273e+00	0.0	-8.670707e+00	4.981851e+00	0.0	-8.639234e+00	5.036232e+00	0.0	-8.607420e+00	5.090414e+00	0.0	-8.575267e+00	5.144395e+00	0.0	-8.542774e+00	5.198173e+00	0.0	-8.509945e+00	5.251746e+00	0.0	-8.476779e+00	5.305112e+00	0.0	-8.443279e+00	5.358268e+00	0.0	-8.409446e+00	5.411213e+00	0.0	-8.375280e+00	5.463943e+00	0.0	-8.340784e+00	5.516459e+00	0.0	-8.305959e+00	5.568756e+00	0.0	-8.270806e+00	5.620834e+00	0.0	-8.235326e+00	5.672689e+00	0.0	-8.199521e+00	5.724321e+00	0.0	-8.163393e+00	5.775727e+00	0.0	-8.126942e+00	5.826905e+00	0.0	-8.090170e+00	5.877853e+00	0.0	-8.053079e+00	5.928568e+00	0.0	-8.015670e+00	5.979050e+00	0.0	-7.977944e+00	6.029295e+00	0.0	-7.939904e+00	6.079303e+00	0.0	-7.901550e+00	6.129071e+00	0.0	-7.862884e+00	6.178596e+00	0.0	-7.823908e+00	6.227878e+00	0.0	-7.784623e+00	6.276914e+00	0.0	-7.745031e+00	6.325702e+00	0.0	-7.705132e+00	6.374240e+00	0.0	-7.664930e+00	6.422527e+00	0.0	-7.624425e+00	6.470560e+00	0.0	-7.583619e+00	6.518337e+00	0.0	-7.542514e+00	6.565858e+00	0.0	-7.501111e+00	6.613119e+00	0.0	-7.459411e+00	6.660119e+00	0.0	-7.417418e+00	6.706856e+00	0.0	-7.375131e+00	6.753328e+00	0.0	-7.332553e+00	6.799534e+00	0.0	-7.289686e+00	6.845471e+00	0.0	-7.246531e+00	6.891138e+00	0.0	-7.203090e+00	6.936533e+00	0.0	-7.159365e+00	6.981654e+00	0.0	-7.115357e+00	7.026500e+00	0.0	-7.071068e+00	7.071068e+00	0.0	-7.026500e+00	7.115357e+00	0.0	-6.981654e+00	7.159365e+00	0.0	-6.936533e+00	7.203090e+00	0.0	-6.891138e+00	7.246531e+00	0.0	-6.845471e+00	7.289686e+00	0.0	-6.799534e+00	7.332553e+00	0.0	-6.753328e+00	7.375131e+00	0.0	-6.706856e+00	7.417418e+00	0.0	-6.660119e+00	7.459411e+00	0.0	-6.613119e+00	7.501111e+00	0.0	-6.565858e+00	7.542514e+00	0.0	-6.518337e+00	7.583619e+00	0.0	-6.470560e+00	7.624425e+00	0.0	-6.422527e+00	7.664930e+00	0.0	-6.374240e+00	7.705132e+00	0.0	-6.325702e+00	7.745031e+00	0.0	-6.276914e+00	7.784623e+00	0.0	-6.227878e+00	7.823908e+00	0.0	-6.178596e+00	7.862884e+00	0.0	-6.129071e+00	7.901550e+00	0.0	-6.079303e+00	7.939904e+00	0.0	-6.029295e+00	7.977944e+00	0.0	-5.979050e+00	8.015670e+00	0.0	-5.928568e+00	8.053079e+00	0.0	-5.877853e+00	8.090170e+00	0.0	-5.826905e+00	8.126942e+00	0.0	-5.775727e+00	8.163393e+00	0.0	-5.724321e+00	8.199521e+00	0.0	-5.672689e+00	8.235326e+00	0.0	-5.620834e+00	8.270806e+00	0.0	-5.568756e+00	8.305959e+00	0.0	-5.516459e+00	8.340784e+00	0.0	-5.463943e+00	8.375280e+00	0.0	-5.411213e+00	8.409446e+00	0.0	-5.358268e+00	8.443279e+00	0.0	-5.305112e+00	8.476779e+00	0.0	-5.251746e+00	8.509945e+00	0.0	-5.198173e+00	8.542774e+00	0.0	-5.144395e+00	8.575267e+00	0.0	-5.090414e+00	8.607420e+00	0.0	-5.036232e+00	8.639234e+00	0.0	-4.981851e+00	8.670707e+00	0.0	-4.927273e+00	8.701838e+00	0.0	-4.872501e+00	8.732625e+00	0.0	-4.817537e+00	8.763067e+00	0.0	-4.762382e+00	8.793163e+00	0.0	-4.707039e+00	8.822912e+00	0.0	-4.651511e+00	8.852313e+00	0.0	-4.595799e+00	8.881364e+00	0.0	-4.539905e+00	8.910065e+00	0.0	-4.483832e+00	8.938414e+00	0.0	-4.427582e+00	8.966410e+00	0.0	-4.371158e+00	8.994053e+00	0.0	-4.314560e+00	9.021340e+00	0.0	-4.257793e+00	9.048271e+00	0.0	-4.200857e+00	9.074844e+00	0.0	-4.143756e+00	9.101060e+00	0.0	-4.086491e+00	9.126916e+00	0.0	-4.029064e+00	9.152412e+00	0.0	-3.971479e+00	9.177546e+00	0.0	-3.913737e+00	9.202318e+00	0.0	-3.855840e+00	9.226727e+00	0.0	-3.797791e+00	9.250772e+00	0.0	-3.739592e+00	9.274452e+00	0.0	-3.681246e+00	9.297765e+00	0.0	-3.622754e+00	9.320711e+00	0.0	-3.564119e+00	9.343289e+00	0.0	-3.505343e+00	9.365499e+00	0.0	-3.446429e+00	9.387339e+00	0.0	-3.387379e+00	9.408808e+00	0.0	-3.328195e+00	9.429905e+00	0.0	-3.268880e+00	9.450631e+00	0.0	-3.209436e+00	9.470983e+00	0.0	-3.149865e+00	9.490961e+00	0.0	-3.090170e+00	9.510565e+00	0.0	-3.030353e+00	9.529793e+00	0.0	-2.970416e+00	9.548645e+00	0.0	-2.910362e+00	9.567121e+00	0.0	-2.850193e+00	9.585218e+00	0.0	-2.789911e+00	9.602937e+00	0.0	-2.729519e+00	9.620277e+00	0.0	-2.669020e+00	9.637237e+00	0.0	-2.608415e+00	9.653816e+00	0.0	-2.547707e+00	9.670015e+00	0.0	-2.486899e+00	9.685832e+00	0.0	-2.425992e+00	9.701266e+00	0.0	-2.364990e+00	9.716317e+00	0.0	-2.303894e+00	9.730985e+00	0.0	-2.242708e+00	9.745269e+00	0.0	-2.181432e+00	9.759168e+00	0.0	-2.120071e+00	9.772681e+00	0.0	-2.058626e+00	9.785809e+00	0.0	-1.997100e+00	9.798551e+00	0.0	-1.935495e+00	9.810905e+00	0.0	-1.873813e+00	9.822873e+00	0.0	-1.812058e+00	9.834452e+00	0.0	-1.750231e+00	9.845643e+00	0.0	-1.688334e+00	9.856446e+00	0.0	-1.626372e+00	9.866859e+00	0.0	-1.564345e+00	9.876883e+00	0.0	-1.502256e+00	9.886517e+00	0.0	-1.440108e+00	9.895761e+00	0.0	-1.377903e+00	9.904614e+00	0.0	-1.315644e+00	9.913076e+00	0.0	-1.253332e+00	9.921147e+00	0.0	-1.190972e+00	9.928826e+00	0.0	-1.128564e+00	9.936113e+00	0.0	-1.066112e+00	9.943008e+00	0.0	-1.003617e+00	9.949510e+00	0.0	-9.410831e-01	9.955620e+00	0.0	-8.785120e-01	9.961336e+00	0.0	-8.159061e-01	9.966659e+00	0.0	-7.532681e-01	9.971589e+00	0.0	-6.906003e-01	9.976125e+00	0.0	-6.279052e-01	9.980267e+00	0.0	-5.651853e-01	9.984016e+00	0.0	-5.024432e-01	9.987370e+00	0.0	-4.396812e-01	9.990329e+00	0.0	-3.769018e-01	9.992895e+00	0.0	-3.141076e-01	9.995066e+00	0.0	-2.513010e-01	9.996842e+00	0.0	-1.884844e-01	9.998224e+00	0.0	-1.256604e-01	9.999210e+00	0.0	-6.283144e-02	9.999803e+00	0.0	8.820552e-14	1.000000e+01	0.0	6.283144e-02	9.999803e+00	0.0	1.256604e-01	9.999210e+00	0.0	1.884844e-01	9.998224e+00	0.0	2.513010e-01	9.996842e+00	0.0	3.141076e-01	9.995066e+00	0.0	3.769018e-01	9.992895e+00	0.0	4.396812e-01	9.990329e+00	0.0	5.024432e-01	9.987370e+00	0.0	5.651853e-01	9.984016e+00	0.0	6.279052e-01	9.980267e+00	0.0	6.906003e-01	9.976125e+00	0.0	7.532681e-01	9.971589e+00	0.0	8.159061e-01	9.966659e+00	0.0	8.785120e-01	9.961336e+00	0.0	9.410831e-01	9.955620e+00	0.0	1.003617e+00	9.949510e+00	0.0	1.066112e+00	9.943008e+00	0.0	1.128564e+00	9.936113e+00	0.0	1.190972e+00	9.928826e+00	0.0	1.253332e+00	9.921147e+00	0.0	1.315644e+00	9.913076e+00	0.0	1.377903e+00	9.904614e+00	0.0	1.440108e+00	9.895761e+00	0.0	1.502256e+00	9.886517e+00	0.0	1.564345e+00	9.876883e+00	0.0	1.626372e+00	9.866859e+00	0.0	1.688334e+00	9.856446e+00	0.0	1.750231e+00	9.845643e+00	0.0	1.812058e+00	9.834452e+00	0.0	1.873813e+00	9.822873e+00	0.0	1.935495e+00	9.810905e+00	0.0	1.997100e+00	9.798551e+00	0.0	2.058626e+00	9.785809e+00	0.0	2.120071e+00	9.772681e+00	0.0	2.181432e+00	9.759168e+00	0.0	2.242708e+00	9.745269e+00	0.0	2.303894e+00	9.730985e+00	0.0	2.364990e+00	9.716317e+00	0.0	2.425992e+00	9.701266e+00	0.0	2.486899e+00	9.685832e+00	0.0	2.547707e+00	9.670015e+00	0.0	2.608415e+00	9.653816e+00	0.0	2.669020e+00	9.637237e+00	0.0	2.729519e+00	9.620277e+00	0.0	2.789911e+00	9.602937e+00	0.0	2.850193e+00	9.585218e+00	0.0	2.910362e+00	9.567121e+00	0.0	2.970416e+00	9.548645e+00	0.0	3.030353e+00	9.529793e+00	0.0	3.090170e+00	9.510565e+00	0.0	3.149865e+00	9.490961e+00	0.0	3.209436e+00	9.470983e+00	0.0	3.268880e+00	9.450631e+00	0.0	3.328195e+00	9.429905e+00	0.0	3.387379e+00	9.408808e+00	0.0	3.446429e+00	9.387339e+00	0.0	3.505343e+00	9.365499e+00	0.0	3.564119e+00	9.343289e+00	0.0	3.622754e+00	9.320711e+00	0.0	3.681246e+00	9.297765e+00	0.0	3.739592e+00	9.274452e+00	0.0	3.797791e+00	9.250772e+00	0.0	3.855840e+00	9.226727e+00	0.0	3.913737e+00	9.202318e+00	0.0	3.971479e+00	9.177546e+00	0.0	4.029064e+00	9.152412e+00	0.0	4.086491e+00	9.126916e+00	0.0	4.143756e+00	9.101060e+00	0.0	4.200857e+00	9.074844e+00	0.0	4.257793e+00	9.048271e+00	0.0	4.314560e+00	9.021340e+00	0
[...]
POINT_DATA 1000

SCALARS Conservative_1 float 1
LOOKUP_TABLE default
5.936344e-01	5.937224e-01	5.938358e-01	5.936837e-01	5.932240e-01	5.927883e-01	5.922886e-01	5.919018e-01	5.914892e-01	5.909897e-01	5.903728e-01	5.896187e-01	5.886019e-01	5.876187e-01	5.866218e-01	5.853834e-01	5.840380e-01	5.828668e-01	5.814694e-01	5.800294e-01	5.785693e-01	5.772132e-01	5.752783e-01	5.728200e-01	5.703849e-01	5.677140e-01	5.650753e-01	5.628130e-01	5.607196e-01	5.586117e-01	5.563840e-01	5.536702e-01	5.506809e-01	5.476829e-01	5.450717e-01	5.419220e-01	5.388508e-01	5.355536e-01	5.318393e-01	5.286491e-01	5.252826e-01	5.212148e-01	5.168759e-01	5.139128e-01	5.107045e-01	5.066950e-01	5.023711e-01	4.985364e-01	4.936709e-01	4.896366e-01	4.864045e-01	4.824077e-01	4.773371e-01	4.718814e-01	4.665093e-01	4.613673e-01	4.564606e-01	4.522361e-01	4.482486e-01	4.439449e-01	4.398481e-01	4.343488e-01	4.287084e-01	4.230220e-01	4.181395e-01	4.136734e-01	4.081498e-01	4.023226e-01	3.975080e-01	3.930199e-01	3.869398e-01	3.800746e-01	3.734786e-01	3.690018e-01	3.645236e-01	3.596102e-01	3.527645e-01	3.436088e-01	3.344050e-01	3.273082e-01	3.217508e-01	3.164595e-01	3.122712e-01	3.066141e-01	3.004275e-01	2.945384e-01	2.868980e-01	2.803976e-01	2.724723e-01	2.650979e-01	2.588016e-01	2.522968e-01	2.443565e-01	2.362725e-01	2.294539e-01	2.222708e-01	2.168895e-01	2.120494e-01	2.052246e-01	1.972327e-01	1.888708e-01	1.803883e-01	1.750620e-01	1.677172e-01	1.601266e-01	1.492951e-01	1.408806e-01	1.354628e-01	1.266379e-01	1.157167e-01	1.075629e-01	1.001412e-01	9.290948e-02	8.309570e-02	7.452418e-02	7.169296e-02	6.479151e-02	5.609738e-02	4.677390e-02	4.010406e-02	3.280631e-02	2.225677e-02	1.040403e-02	1.816507e-03	-1.512572e-03	-4.182638e-03	-1.482814e-02	-2.547986e-02	-3.448760e-02	-4.462300e-02	-5.514129e-02	-6.375506e-02	-6.697242e-02	-7.426890e-02	-8.616356e-02	-9.643560e-02	-1.050218e-01	-1.197019e-01	-1.326821e-01	-1.379551e-01	-1.412648e-01	-1.524280e-01	-1.635274e-01	-1.674845e-01	-1.693620e-01	-1.757104e-01	-1.866710e-01	-1.963648e-01	-2.043491e-01	-2.109288e-01	-2.187104e-01	-2.252455e-01	-2.307833e-01	-2.383690e-01	-2.442484e-01	-2.517697e-01	-2.610611e-01	-2.707422e-01	-2.788645e-01	-2.875877e-01	-2.927560e-01	-2.988986e-01	-3.068221e-01	-3.169271e-01	-3.282165e-01	-3.358886e-01	-3.417811e-01	-3.489368e-01	-3.565448e-01	-3.637083e-01	-3.660920e-01	-3.724412e-01	-3.793449e-01	-3.873317e-01	-3.943297e-01	-3.996537e-01	-4.041172e-01	-4.077150e-01	-4.156835e-01	-4.257727e-01	-4.324836e-01	-4.378724e-01	-4.434782e-01	-4.508826e-01	-4.524486e-01	-4.532631e-01	-4.592396e-01	-4.719967e-01	-4.758464e-01	-4.761895e-01	-4.826109e-01	-4.899425e-01	-4.895563e-01	-4.937310e-01	-5.009386e-01	-5.031659e-01	-5.054176e-01	-5.113290e-01	-5.211026e-01	-5.285031e-01	-5.324507e-01	-5.373420e-01	-5.386754e-01	-5.383103e-01	-5.412668e-01	-5.434985e-01	-5.479347e-01	-5.524698e-01	-5.557169e-01	-5.570763e-01	-5.640115e-01	-5.677388e-01	-5.709801e-01	-5.722754e-01	-5.745085e-01	-5.742652e-01	-5.727697e-01	-5.744802e-01	-5.762826e-01	-5.807232e-01	-5.849317e-01	-5.850760e-01	-5.843732e-01	-5.849780e-01	-5.866904e-01	-5.862708e-01	-5.849046e-01	-5.832287e-01	-5.836618e-01	-5.863749e-01	-5.911835e-01	-5.949857e-01	-5.968470e-01	-5.957553e-01	-5.932545e-01	-5.915643e-01	-5.898403e-01	-5.898689e-01	-5.910633e-01	-5.934963e-01	-5.938164e-01	-5.915027e-01	-5.905043e-01	-5.848386e-01	-5.803833e-01	-5.778528e-01	-5.757814e-01	-5.739347e-01	-5.723628e-01	-5.705676e-01	-5.684408e-01	-5.661133e-01	-5.647648e-01	-5.630635e-01	-5.613075e-01	-5.600305e-01	-5.590060e-01	-5.568771e-01	-5.560443e-01	-5.561014e-01	-5.558116e-01	-5.510582e-01	-5.471123e-01	-5.379807e-01	-5.306236e-01	-5.257450e-01	-5.217532e-01	-5.178672e-01	-5.145886e-01	-5.117044e-01	-5.089326e-01	-5.056684e-01	-5.024005e-01	-4.988197e-01	-4.944614e-01	-4.905648e-01	-4.869676e-01	-4.839012e-01	-4.810470e-01	-4.758162e-01	-4.702891e-01	-4.654896e-01	-4.616824e-01	-4.577538e-01	-4.537223e-01	-4.499119e-01	-4.467647e-01	-4.436669e-01	-4.406977e-01	-4.366502e-01	-4.325604e-01	-4.296644e-01	-4.260602e-01	-4.222216e-01	-4.178587e-01	-4.140139e-01	-4.108454e-01	-4.080049e-01	-4.048139e-01	-4.018835e-01	-3.991444e-01	-3.953212e-01	-3.914020e-01	-3.864671e-01	-3.827116e-01	-3.800916e-01	-3.771340e-01	-3.741649e-01	-3.717407e-01	-3.690974e-01	-3.672768e-01	-3.652423e-01	-3.630451e-01	-3.606912e-01	-3.579824e-01	-3.560642e-01	-3.543540e-01	-3.523486e-01	-3.507369e-01	-3.495139e-01	-3.480407e-01	-3.466284e-01	-3.453388e-01	-3.443533e-01	-3.434655e-01	-3.426365e-01	-3.419892e-01	-3.414162e-01	-3.409063e-01	-3.403214e-01	-3.398141e-01	-3.394804e-01	-3.390976e-01	-3.388019e-01	-3.383786e-01	-3.380358e-01	-3.374547e-01	-3.366811e-01	-3.355592e-01	-3.347392e-01	-3.343056e-01	-3.333004e-01	-3.322097e-01	-3.313670e-01	-3.303572e-01	-3.297102e-01	-3.289718e-01	-3.283929e-01	-3.273916e-01	-3.266885e-01	-3.262006e-01	-3.256627e-01	-3.249933e-01	-3.243985e-01	-3.240446e-01	-3.234301e-01	-3.229976e-01	-3.224619e-01	-3.219441e-01	-3.212728e-01	-3.204686e-01	-3.199500e-01	-3.198721e-01	-3.195049e-01	-3.190093e-01	-3.186092e-01	-3.183999e-01	-3.180209e-01	-3.175478e-01	-3.173240e-01	-3.171556e-01	-3.167896e-01	-3.166593e-01	-3.165099e-01	-3.161824e-01	-3.160270e-01	-3.160190e-01	-3.160038e-01	-3.159975e-01	-3.158609e-01	-3.154795e-01	-3.152992e-01	-3.153728e-01	-3.154801e-01	-3.154380e-01	-3.154389e-01	-3.154167e-01	-3.151861e-01	-3.149546e-01	-3.149779e-01	-3.149223e-01	-3.148190e-01	-3.146046e-01	-3.146743e-01	-3.149585e-01	-3.150382e-01	-3.145951e-01	-3.142366e-01	-3.140851e-01	-3.138747e-01	-3.138278e-01	-3.140234e-01	-3.139051e-01	-3.138828e-01	-3.142577e-01	-3.140890e-01	-3.138252e-01	-3.138463e-01	-3.140158e-01	-3.140951e-01	-3.137639e-01	-3.134377e-01	-3.132781e-01	-3.131928e-01	-3.132237e-01	-3.129188e-01	-3.126644e-01	-3.124966e-01	-3.120899e-01	-3.117213e-01	-3.117704e-01	-3.117274e-01	-3.112576e-01	-3.108781e-01	-3.108019e-01	-3.105840e-01	-3.099231e-01	-3.092923e-01	-3.089860e-01	-3.089401e-01	-3.086364e-01	-3.080814e-01	-3.075166e-01	-3.069790e-01	-3.070259e-01	-3.073184e-01	-3.068054e-01	-3.061049e-01	-3.054041e-01	-3.049582e-01	-3.043596e-01	-3.036334e-01	-3.029910e-01	-3.025875e-01	-3.022618e-01	-3.016306e-01	-3.006562e-01	-2.997751e-01	-2.992910e-01	-2.987338e-01	-2.982158e-01	-2.975324e-01	-2.965729e-01	-2.957876e-01	-2.951932e-01	-2.947352e-01	-2.939299e-01	-2.931690e-01	-2.924430e-01	-2.918078e-01	-2.910127e-01	-2.905258e-01	-2.900011e-01	-2.894502e-01	-2.886514e-01	-2.878905e-01	-2.873355e-01	-2.866404e-01	-2.859063e-01	-2.848901e-01	-2.840168e-01	-2.832780e-01	-2.827081e-01	-2.822681e-01	-2.816889e-01	-2.811101e-01	-2.804155e-01	-2.797483e-01	-2.793218e-01	-2.790506e-01	-2.785349e-01	-2.780955e-01	-2.775763e-01	-2.769844e-01	-2.764549e-01	-2.759373e-01	-2.755040e-01	-2.750839e-01	-2.747880e-01	-2.745710e-01	-2.743523e-01	-2.740777e-01	-2.738887e-01	-2.737284e-01	-2.735595e-01	-2.733894e-01	-2.731993e-01	-2.730213e-01	-2.728609e-01	-2.727608e-01	-2.726920e-01	-2.725945e-01	-2.725619e-01	-2.725964e-01	-2.726659e-01	-2.727032e-01	-2.728142e-01	-2.730273e-01	-2.732782e-01	-2.734504e-01	-2.736861e-01	-2.740410e-01	-2.743889e-01	-2.747410e-01	-2.749982e-01	-2.752890e-01	-2.756406e-01	-2.760338e-01	-2.763915e-01	-2.769795e-01	-2.775079e-01	-2.779888e-01	-2.784926e-01	-2.789172e-01	-2.793054e-01	-2.799554e-01	-2.806385e-01	-2.811106e-01	-2.816171e-01	-2.821927e-01	-2.826885e-01	-2.833755e-01	-2.842159e-01	-2.848771e-01	-2.854350e-01	-2.861231e-01	-2.868145e-01	-2.877289e-01	-2.884360e-01	-2.887963e-01	-2.892436e-01	-2.899874e-01	-2.907327e-01	-2.913313e-01	-2.918274e-01	-2.924488e-01	-2.930584e-01	-2.937721e-01	-2.944437e-01	-2.950814e-01	-2.956244e-01	-2.963026e-01	-2.971388e-01	-2.978035e-01	-2.980969e-01	-2.986386e-01	-2.991677e-01	-2.997062e-01	-2.999962e-01	-3.005186e-01	-3.014595e-01	-3.022971e-01	-3.028525e-01	-3.032226e-01	-3.039801e-01	-3.041745e-01	-3.043815e-01	-3.047838e-01	-3.055627e-01	-3.061764e-01	-3.066628e-01	-3.070118e-01	-3.073718e-01	-3.079234e-01	-3.080405e-01	-3.082528e-01	-3.088143e-01	-3.096638e-01	-3.099804e-01	-3.099115e-01	-3.100471e-01	-3.104364e-01	-3.110566e-01	-3.113764e-01	-3.115232e-01	-3.114537e-01	-3.117004e-01	-3.119811e-01	-3.121796e-01	-3.124692e-01	-3.128578e-01	-3.128313e-01	-3.130429e-01	-3.130834e-01	-3.129951e-01	-3.133022e-01	-3.137739e-01	-3.142790e-01	-3.141406e-01	-3.140026e-01	-3.142647e-01	-3.145763e-01	-3.144788e-01	-3.144131e-01	-3.143797e-01	-3.142968e-01	-3.142809e-01	-3.144464e-01	-3.145206e-01	-3.145802e-01	-3.146803e-01	-3.146259e-01	-3.149291e-01	-3.153930e-01	-3.152904e-01	-3.149173e-01	-3.148206e-01	-3.151191e-01	-3.151717e-01	-3.145947e-01	-3.146037e-01	-3.147868e-01	-3.147298e-01	-3.147293e-01	-3.147159e-01	-3.145533e-01	-3.146559e-01	-3.150400e-01	-3.151157e-01	-3.151633e-01	-3.152997e-01	-3.151504e-01	-3.151357e-01	-3.152148e-01	-3.152496e-01	-3.155012e-01	-3.159315e-01	-3.161994e-01	-3.161659e-01	-3.162064e-01	-3.162419e-01	-3.163066e-01	-3.165253e-01	-3.167727e-01	-3.169036e-01	-3.172891e-01	-3.178107e-01	-3.183263e-01	-3.187768e-01	-3.190620e-01	-3.194872e-01	-3.200647e-01	-3.205524e-01	-3.206927e-01	-3.210353e-01	-3.215465e-01	-3.220376e-01	-3.224318e-01	-3.228868e-01	-3.232805e-01	-3.236926e-01	-3.239774e-01	-3.244474e-01	-3.249292e-01	-3.252620e-01	-3.257356e-01	-3.262495e-01	-3.266259e-01	-3.272604e-01	-3.279973e-01	-3.289126e-01	-3.298179e-01	-3.308499e-01	-3.321208e-01	-3.335884e-01	-3.348176e-01	-3.359961e-01	-3.371323e-01	-3.380324e-01	-3.388364e-01	-3.393630e-01	-3.400556e-01	-3.413639e-01	-3.432143e-01	-3.453118e-01	-3.478152e-01	-3.498788e-01	-3.524688e-01	-3.549955e-01	-3.569483e-01	-3.580913e-01	-3.591522e-01	-3.610137e-01	-3.630971e-01	-3.645618e-01	-3.656910e-01	-3.676235e-01	-3.708814e-01	-3.749781e-01	-3.784568e-01	-3.804313e-01	-3.825228e-01	-3.858099e-01	-3.889949e-01	-3.910896e-01	-3.933224e-01	-3.964771e-01	-4.002419e-01	-4.048578e-01	-4.095553e-01	-4.130920e-01	-4.163655e-01	-4.190197e-01	-4.227723e-01	-4.279627e-01	-4.332904e-01	-4.369511e-01	-4.406274e-01	-4.433057e-01	-4.459753e-01	-4.490589e-01	-4.522432e-01	-4.566250e-01	-4.623622e-01	-4.678800e-01	-4.717576e-01	-4.741832e-01	-4.770085e-01	-4.805103e-01	-4.845594e-01	-4.889939e-01	-4.936367e-01	-4.980660e-01	-5.000852e-01	-5.026593e-01	-5.046911e-01	-5.067261e-01	-5.095543e-01	-5.125614e-01	-5.163423e-01	-5.201530e-01	-5.240255e-01	-5.272520e-01	-5.295465e-01	-5.316037e-01	-5.335578e-01	-5.348026e-01	-5.355542e-01	-5.395738e-01	-5.463839e-01	-5.491003e-01	-5.556807e-01	-5.583467e-01	-5.627183e-01	-5.643416e-01	-5.670884e-01	-5.668857e-01	-5.643329e-01	-5.643918e-01	-5.659726e-01	-5.673072e-01	-5.689172e-01	-5.707588e-01	-5.719906e-01	-5.730123e-01	-5.735882e-01	-5.750991e-01	-5.765932e-01	-5.772809e-01	-5.777289e-01	-5.789399e-01	-5.814353e-01	-5.799929e-01	-5.760992e-01	-5.687493e-01	-5.649303e-01	-5.624152e-01	-5.625201e-01	-5.654740e-01	-5.673712e-01	-5.680057e-01	-5.664426e-01	-5.634311e-01	-5.588694e-01	-5.557566e-01	-5.526607e-01	-5.462531e-01	-5.413876e-01	-5.379876e-01	-5.353812e-01	-5.302609e-01	-5.329250e-01	-5.340344e-01	-5.370554e-01	-5.375841e-01	-5.339066e-01	-5.289585e-01	-5.206694e-01	-5.090830e-01	-5.049657e-01	-5.008587e-01	-4.978123e-01	-4.962513e-01	-4.953344e-01	-4.935615e-01	-4.934824e-01	-4.890957e-01	-4.816943e-01	-4.741403e-01	-4.699140e-01	-4.667012e-01	-4.595058e-01	-4.547249e-01	-4.530592e-01	-4.483859e-01	-4.414700e-01	-4.340368e-01	-4.273381e-01	-4.244609e-01	-4.190050e-01	-4.148409e-01	-4.105177e-01	-4.063411e-01	-4.002822e-01	-3.921354e-01	-3.843305e-01	-3.761863e-01	-3.699492e-01	-3.641787e-01	-3.574123e-01	-3.528410e-01	-3.477668e-01	-3.439835e-01	-3.396706e-01	-3.338748e-01	-3.263025e-01	-3.207785e-01	-3.164433e-01	-3.107991e-01	-3.007885e-01	-2.897680e-01	-2.815574e-01	-2.706030e-01	-2.649688e-01	-2.586514e-01	-2.518252e-01	-2.467594e-01	-2.437061e-01	-2.387976e-01	-2.275138e-01	-2.174778e-01	-2.085797e-01	-2.077872e-01	-2.032535e-01	-1.920043e-01	-1.822020e-01	-1.715890e-01	-1.648455e-01	-1.586122e-01	-1.523230e-01	-1.446079e-01	-1.406086e-01	-1.349822e-01	-1.242309e-01	-1.147094e-01	-1.081722e-01	-1.001938e-01	-9.183016e-02	-8.385040e-02	-7.246124e-02	-6.386586e-02	-5.393248e-02	-4.573421e-02	-4.159012e-02	-4.146084e-02	-3.727261e-02	-2.418317e-02	-1.188404e-02	-6.435333e-03	-1.938350e-03	4.927036e-03	1.358443e-02	2.100480e-02	2.451461e-02	3.415831e-02	4.644991e-02	5.880004e-02	6.756230e-02	7.749065e-02	8.139633e-02	8.498199e-02	9.128780e-02	1.009903e-01	1.115405e-01	1.204937e-01	1.264883e-01	1.307777e-01	1.381356e-01	1.460699e-01	1.526665e-01	1.598938e-01	1.654966e-01	1.751725e-01	1.870724e-01	1.957472e-01	2.016612e-01	2.083104e-01	2.146595e-01	2.195801e-01	2.258939e-01	2.335312e-01	2.421137e-01	2.486562e-01	2.544174e-01	2.613753e-01	2.660668e-01	2.699772e-01	2.755275e-01	2.819660e-01	2.891911e-01	2.931519e-01	2.972308e-01	3.042566e-01	3.176226e-01	3.293070e-01	3.386534e-01	3.430295e-01	3.473284e-01	3.513007e-01	3.563384e-01	3.620951e-01	3.684662e-01	3.756091e-01	3.810489e-01	3.876033e-01	3.941181e-01	4.014453e-01	4.067945e-01	4.114276e-01	4.169349e-01	4.224866e-01	4.291069e-01	4.353125e-01	4.399870e-01	4.446324e-01	4.501893e-01	4.546552e-01	4.601237e-01	4.654532e-01	4.701094e-01	4.747767e-01	4.788641e-01	4.837655e-01	4.882850e-01	4.926270e-01	4.977453e-01	5.026542e-01	5.076000e-01	5.118908e-01	5.156252e-01	5.196893e-01	5.234137e-01	5.269582e-01	5.308464e-01	5.347756e-01	5.376624e-01	5.408194e-01	5.434322e-01	5.463409e-01	5.494901e-01	5.524869e-01	5.558642e-01	5.579766e-01	5.602644e-01	5.632600e-01	5.659613e-01	5.685228e-01	5.709401e-01	5.731650e-01	5.750497e-01	5.766392e-01	5.781139e-01	5.795941e-01	5.809928e-01	5.826634e-01	5.841192e-01	5.852405e-01	5.862447e-01	5.872376e-01	5.880527e-01	5.888455e-01	5.896476e-01	5.905077e-01	5.912249e-01	5.918578e-01	5.923702e-01	5.928191e-01	5.931612e-01	5.933989e-01	5.935202e-01	
SCALARS Conservative_2 float 1
LOOKUP_TABLE default